  50
   1   1
    62.435725412989996     0.000000000000000     0.000000000000000
     0.000000000000000    62.435725412989996     0.000000000000000
     0.000000000000000     0.000000000000000    14.289323830839999
   1   2
    -4.712479216450000    -0.280125706730000    -0.000000000000000
     0.280125706730000     2.641790743710000     0.000000000000000
     0.000000000000000    -0.000000000000000     0.460471592390000
   1   3
    -0.143178206490000    -0.051765608350000    -0.000000000000000
     0.051765608350000     0.232570914760000     0.000000000000000
     0.000000000000000    -0.000000000000000     0.013800759110000
   1   4
    -0.143178206490000     0.051765608350000     0.000000000000000
    -0.051765608350000     0.232570914760000    -0.000000000000000
    -0.000000000000000     0.000000000000000     0.013800759110000
   1   5
    -4.712479216450000     0.280125706730000     0.000000000000000
    -0.280125706730000     2.641790743710000    -0.000000000000000
    -0.000000000000000     0.000000000000000     0.460471592390000
   1   6
     0.803223253670000     2.904366697900000    -0.000000000000000
     3.464617991250000    -2.873911726410000    -0.000000000000000
    -0.000000000000000     0.000000000000000     0.460471592390000
   1   7
     0.803223253670000    -2.904366697900000    -0.000000000000000
    -3.464617991250000    -2.873911726410000     0.000000000000000
     0.000000000000000     0.000000000000000     0.460471592390000
   1   8
    -0.411585140850000    -0.191262803670000    -0.000000000000000
    -0.191262803670000    -0.190733839230000     0.000000000000000
    -0.000000000000000     0.000000000000000    -0.070166460350000
   1   9
    -0.244502041610000     0.000000000000000    -0.000000000000000
     0.000000000000000    -0.003948856470000     0.000000000000000
    -0.000000000000000    -0.000000000000000     0.010552624380000
   1  10
    -0.411585140850000     0.191262803670000     0.000000000000000
     0.191262803670000    -0.190733839230000     0.000000000000000
     0.000000000000000     0.000000000000000    -0.070166460350000
   1  11
     0.138633604420000     0.110938520510000     0.000000000000000
     0.214469737210000    -0.049240896150000    -0.000000000000000
    -0.000000000000000    -0.000000000000000     0.013800759110000
   1  12
    -0.080308308530000    -0.000000000000000    -0.000000000000000
     0.000000000000000    -0.522010671550000     0.000000000000000
    -0.000000000000000     0.000000000000000    -0.070166460350000
   1  13
     0.138633604420000    -0.110938520510000     0.000000000000000
    -0.214469737210000    -0.049240896150000    -0.000000000000000
     0.000000000000000    -0.000000000000000     0.013800759110000
   1  14
    -0.064087092700000    -0.104162634970000     0.000000000000000
    -0.104162634970000    -0.184363685270000    -0.000000000000000
     0.000000000000000    -0.000000000000000     0.010552624380000
   1  15
    -0.064087092700000     0.104162634970000    -0.000000000000000
     0.104162634970000    -0.184363685270000     0.000000000000000
    -0.000000000000000    -0.000000000000000     0.010552624380000
   1  16
     0.138633604420000     0.214469737210000    -0.000000000000000
     0.110938520510000    -0.049240896150000    -0.000000000000000
     0.000000000000000    -0.000000000000000     0.013800759110000
   1  17
    -0.064087092700000     0.104162634970000    -0.000000000000000
     0.104162634970000    -0.184363685270000    -0.000000000000000
    -0.000000000000000     0.000000000000000     0.010552624380000
   1  18
    -0.064087092700000    -0.104162634970000     0.000000000000000
    -0.104162634970000    -0.184363685270000    -0.000000000000000
     0.000000000000000    -0.000000000000000     0.010552624380000
   1  19
     0.138633604420000    -0.214469737210000     0.000000000000000
    -0.110938520510000    -0.049240896150000    -0.000000000000000
     0.000000000000000    -0.000000000000000     0.013800759110000
   1  20
    -0.080308308530000     0.000000000000000    -0.000000000000000
    -0.000000000000000    -0.522010671550000     0.000000000000000
    -0.000000000000000     0.000000000000000    -0.070166460350000
   1  21
     0.803223253670000     3.464617991250000    -0.000000000000000
     2.904366697900000    -2.873911726410000     0.000000000000000
    -0.000000000000000    -0.000000000000000     0.460471592390000
   1  22
    -0.411585140850000     0.191262803670000     0.000000000000000
     0.191262803670000    -0.190733839230000     0.000000000000000
     0.000000000000000     0.000000000000000    -0.070166460350000
   1  23
    -0.244502041610000     0.000000000000000    -0.000000000000000
     0.000000000000000    -0.003948856470000    -0.000000000000000
    -0.000000000000000     0.000000000000000     0.010552624380000
   1  24
    -0.411585140850000    -0.191262803670000    -0.000000000000000
    -0.191262803670000    -0.190733839230000     0.000000000000000
    -0.000000000000000     0.000000000000000    -0.070166460350000
   1  25
     0.803223253670000    -3.464617991250000     0.000000000000000
    -2.904366697900000    -2.873911726410000     0.000000000000000
    -0.000000000000000     0.000000000000000     0.460471592390000
   1  26
   -10.470718608469999     0.000000000000000    -0.000000000000000
     0.000000000000000   -25.584686350599998    -0.000000000000000
    -0.000000000000000    -0.000000000000000    -6.118038265599999
   1  27
     0.133223489690000     1.192865618730000    -0.000000000000000
     1.192865618730000    -1.244179133040000     0.000000000000000
    -0.000000000000000     0.000000000000000    -0.366279168410000
   1  28
     0.246309096560000     0.064808593470000     0.000000000000000
     0.064808593470000    -0.120128737160000     0.000000000000000
     0.000000000000000     0.000000000000000     0.010946825400000
   1  29
     0.246309096560000    -0.064808593470000     0.000000000000000
    -0.064808593470000    -0.120128737160000     0.000000000000000
     0.000000000000000     0.000000000000000     0.010946825400000
   1  30
     0.133223489690000    -1.192865618730000    -0.000000000000000
    -1.192865618730000    -1.244179133040000     0.000000000000000
    -0.000000000000000     0.000000000000000    -0.366279168410000
   1  31
    -0.592627424290000     0.253862334020000     0.000000000000000
     0.253862334020000     0.814588782530000     0.000000000000000
     0.000000000000000     0.000000000000000     0.485593079330000
   1  32
    -0.592627424290000    -0.253862334020000    -0.000000000000000
    -0.253862334020000     0.814588782530000     0.000000000000000
    -0.000000000000000     0.000000000000000     0.485593079330000
   1  33
     0.027606682950000     0.191076513060000     0.000000000000000
     0.191076513060000     0.098573676450000     0.000000000000000
     0.000000000000000     0.000000000000000     0.010946825400000
   1  34
    -0.015595682950000     0.000000000000000     0.000000000000000
     0.000000000000000    -0.015595682950000     0.000000000000000
     0.000000000000000     0.000000000000000    -0.007873210500000
   1  35
     0.027606682950000    -0.191076513060000    -0.000000000000000
    -0.191076513060000     0.098573676450000     0.000000000000000
    -0.000000000000000     0.000000000000000     0.010946825400000
   1  36
    -0.043661906760000    -0.006435974240000    -0.000000000000000
    -0.006435974240000    -0.036230340730000    -0.000000000000000
    -0.000000000000000    -0.000000000000000    -0.052185633020000
   1  37
     0.165126867670000    -0.000000000000000    -0.000000000000000
    -0.000000000000000     0.435553932120000    -0.000000000000000
    -0.000000000000000    -0.000000000000000    -0.046377473750000
   1  38
    -0.043661906760000     0.006435974240000     0.000000000000000
     0.006435974240000    -0.036230340730000    -0.000000000000000
     0.000000000000000    -0.000000000000000    -0.052185633020000
   1  39
    -0.084645240410000     0.126267919590000    -0.000000000000000
     0.126267919590000     0.210825599810000     0.000000000000000
    -0.000000000000000     0.000000000000000     0.010946825400000
   1  40
    -0.084645240410000    -0.126267919590000     0.000000000000000
    -0.126267919590000     0.210825599810000     0.000000000000000
     0.000000000000000     0.000000000000000     0.010946825400000
   1  41
     0.682635936530000    -0.482411245320000     0.000000000000000
    -0.482411245320000    -0.460674578290000    -0.000000000000000
     0.000000000000000    -0.000000000000000     0.485593079330000
   1  42
     0.367947135980000    -0.117098361860000    -0.000000000000000
    -0.117098361860000     0.232733663810000     0.000000000000000
    -0.000000000000000     0.000000000000000    -0.046377473750000
   1  43
     0.367947135980000     0.117098361860000     0.000000000000000
     0.117098361860000     0.232733663810000     0.000000000000000
     0.000000000000000     0.000000000000000    -0.046377473750000
   1  44
     0.682635936530000     0.482411245320000    -0.000000000000000
     0.482411245320000    -0.460674578290000    -0.000000000000000
    -0.000000000000000    -0.000000000000000     0.485593079330000
   1  45
    -1.932880384350000     0.000000000000000    -0.000000000000000
     0.000000000000000     0.821924741000000    -0.000000000000000
    -0.000000000000000    -0.000000000000000    -0.366279168410000
   1  46
   -21.806194385039998     6.544539987459999    -0.000000000000000
     6.544539987459999   -14.249210574029998    -0.000000000000000
    -0.000000000000000    -0.000000000000000    -6.118038265599999
   1  47
     0.242933405010000    -0.736273699450000     0.000000000000000
    -0.736273699450000    -0.020972046770000     0.000000000000000
     0.000000000000000     0.000000000000000     0.485593079330000
   1  48
    -0.032514497660000    -0.000000000000000    -0.000000000000000
    -0.000000000000000    -0.047377629720000     0.000000000000000
    -0.000000000000000     0.000000000000000    -0.052185633020000
   1  49
     0.242933405010000     0.736273699450000    -0.000000000000000
     0.736273699450000    -0.020972046770000     0.000000000000000
    -0.000000000000000     0.000000000000000     0.485593079330000
   1  50
   -21.806194385039998    -6.544539987459999     0.000000000000000
    -6.544539987459999   -14.249210574029998    -0.000000000000000
     0.000000000000000    -0.000000000000000    -6.118038265599999
   2   1
    -4.712479216450000     0.280125706730000     0.000000000000000
    -0.280125706730000     2.641790743710000    -0.000000000000000
    -0.000000000000000     0.000000000000000     0.460471592390000
   2   2
    62.435725412989996     0.000000000000000     0.000000000000000
     0.000000000000000    62.435725412989996     0.000000000000000
     0.000000000000000     0.000000000000000    14.289323830839999
   2   3
    -4.712479216450000    -0.280125706730000    -0.000000000000000
     0.280125706730000     2.641790743710000     0.000000000000000
     0.000000000000000    -0.000000000000000     0.460471592390000
   2   4
    -0.143178206490000    -0.051765608350000    -0.000000000000000
     0.051765608350000     0.232570914760000     0.000000000000000
     0.000000000000000    -0.000000000000000     0.013800759110000
   2   5
    -0.143178206490000     0.051765608350000     0.000000000000000
    -0.051765608350000     0.232570914760000    -0.000000000000000
    -0.000000000000000     0.000000000000000     0.013800759110000
   2   6
    -0.411585140850000     0.191262803670000     0.000000000000000
     0.191262803670000    -0.190733839230000     0.000000000000000
     0.000000000000000     0.000000000000000    -0.070166460350000
   2   7
     0.803223253670000     2.904366697900000    -0.000000000000000
     3.464617991250000    -2.873911726410000    -0.000000000000000
    -0.000000000000000     0.000000000000000     0.460471592390000
   2   8
     0.803223253670000    -2.904366697900000    -0.000000000000000
    -3.464617991250000    -2.873911726410000     0.000000000000000
     0.000000000000000     0.000000000000000     0.460471592390000
   2   9
    -0.411585140850000    -0.191262803670000    -0.000000000000000
    -0.191262803670000    -0.190733839230000     0.000000000000000
    -0.000000000000000     0.000000000000000    -0.070166460350000
   2  10
    -0.244502041610000     0.000000000000000    -0.000000000000000
     0.000000000000000    -0.003948856470000     0.000000000000000
    -0.000000000000000    -0.000000000000000     0.010552624380000
   2  11
    -0.064087092700000     0.104162634970000    -0.000000000000000
     0.104162634970000    -0.184363685270000     0.000000000000000
    -0.000000000000000    -0.000000000000000     0.010552624380000
   2  12
     0.138633604420000     0.110938520510000     0.000000000000000
     0.214469737210000    -0.049240896150000    -0.000000000000000
    -0.000000000000000    -0.000000000000000     0.013800759110000
   2  13
    -0.080308308530000    -0.000000000000000    -0.000000000000000
     0.000000000000000    -0.522010671550000     0.000000000000000
    -0.000000000000000     0.000000000000000    -0.070166460350000
   2  14
     0.138633604420000    -0.110938520510000     0.000000000000000
    -0.214469737210000    -0.049240896150000    -0.000000000000000
     0.000000000000000    -0.000000000000000     0.013800759110000
   2  15
    -0.064087092700000    -0.104162634970000     0.000000000000000
    -0.104162634970000    -0.184363685270000    -0.000000000000000
     0.000000000000000    -0.000000000000000     0.010552624380000
   2  16
    -0.080308308530000     0.000000000000000    -0.000000000000000
    -0.000000000000000    -0.522010671550000     0.000000000000000
    -0.000000000000000     0.000000000000000    -0.070166460350000
   2  17
     0.138633604420000     0.214469737210000    -0.000000000000000
     0.110938520510000    -0.049240896150000    -0.000000000000000
     0.000000000000000    -0.000000000000000     0.013800759110000
   2  18
    -0.064087092700000     0.104162634970000    -0.000000000000000
     0.104162634970000    -0.184363685270000    -0.000000000000000
    -0.000000000000000     0.000000000000000     0.010552624380000
   2  19
    -0.064087092700000    -0.104162634970000     0.000000000000000
    -0.104162634970000    -0.184363685270000    -0.000000000000000
     0.000000000000000    -0.000000000000000     0.010552624380000
   2  20
     0.138633604420000    -0.214469737210000     0.000000000000000
    -0.110938520510000    -0.049240896150000    -0.000000000000000
     0.000000000000000    -0.000000000000000     0.013800759110000
   2  21
     0.803223253670000    -3.464617991250000     0.000000000000000
    -2.904366697900000    -2.873911726410000     0.000000000000000
    -0.000000000000000     0.000000000000000     0.460471592390000
   2  22
     0.803223253670000     3.464617991250000    -0.000000000000000
     2.904366697900000    -2.873911726410000     0.000000000000000
    -0.000000000000000    -0.000000000000000     0.460471592390000
   2  23
    -0.411585140850000     0.191262803670000     0.000000000000000
     0.191262803670000    -0.190733839230000     0.000000000000000
     0.000000000000000     0.000000000000000    -0.070166460350000
   2  24
    -0.244502041610000     0.000000000000000    -0.000000000000000
     0.000000000000000    -0.003948856470000    -0.000000000000000
    -0.000000000000000     0.000000000000000     0.010552624380000
   2  25
    -0.411585140850000    -0.191262803670000    -0.000000000000000
    -0.191262803670000    -0.190733839230000     0.000000000000000
    -0.000000000000000     0.000000000000000    -0.070166460350000
   2  26
     0.133223489690000    -1.192865618730000    -0.000000000000000
    -1.192865618730000    -1.244179133040000     0.000000000000000
    -0.000000000000000     0.000000000000000    -0.366279168410000
   2  27
   -10.470718608469999     0.000000000000000    -0.000000000000000
     0.000000000000000   -25.584686350599998    -0.000000000000000
    -0.000000000000000    -0.000000000000000    -6.118038265599999
   2  28
     0.133223489690000     1.192865618730000    -0.000000000000000
     1.192865618730000    -1.244179133040000     0.000000000000000
    -0.000000000000000     0.000000000000000    -0.366279168410000
   2  29
     0.246309096560000     0.064808593470000     0.000000000000000
     0.064808593470000    -0.120128737160000     0.000000000000000
     0.000000000000000     0.000000000000000     0.010946825400000
   2  30
     0.246309096560000    -0.064808593470000     0.000000000000000
    -0.064808593470000    -0.120128737160000     0.000000000000000
     0.000000000000000     0.000000000000000     0.010946825400000
   2  31
     0.027606682950000    -0.191076513060000    -0.000000000000000
    -0.191076513060000     0.098573676450000     0.000000000000000
    -0.000000000000000     0.000000000000000     0.010946825400000
   2  32
    -0.592627424290000     0.253862334020000     0.000000000000000
     0.253862334020000     0.814588782530000     0.000000000000000
     0.000000000000000     0.000000000000000     0.485593079330000
   2  33
    -0.592627424290000    -0.253862334020000    -0.000000000000000
    -0.253862334020000     0.814588782530000     0.000000000000000
    -0.000000000000000     0.000000000000000     0.485593079330000
   2  34
     0.027606682950000     0.191076513060000     0.000000000000000
     0.191076513060000     0.098573676450000     0.000000000000000
     0.000000000000000     0.000000000000000     0.010946825400000
   2  35
    -0.015595682950000     0.000000000000000     0.000000000000000
     0.000000000000000    -0.015595682950000     0.000000000000000
     0.000000000000000     0.000000000000000    -0.007873210500000
   2  36
    -0.084645240410000    -0.126267919590000     0.000000000000000
    -0.126267919590000     0.210825599810000     0.000000000000000
     0.000000000000000     0.000000000000000     0.010946825400000
   2  37
    -0.043661906760000    -0.006435974240000    -0.000000000000000
    -0.006435974240000    -0.036230340730000    -0.000000000000000
    -0.000000000000000    -0.000000000000000    -0.052185633020000
   2  38
     0.165126867670000    -0.000000000000000    -0.000000000000000
    -0.000000000000000     0.435553932120000    -0.000000000000000
    -0.000000000000000    -0.000000000000000    -0.046377473750000
   2  39
    -0.043661906760000     0.006435974240000     0.000000000000000
     0.006435974240000    -0.036230340730000    -0.000000000000000
     0.000000000000000    -0.000000000000000    -0.052185633020000
   2  40
    -0.084645240410000     0.126267919590000    -0.000000000000000
     0.126267919590000     0.210825599810000     0.000000000000000
    -0.000000000000000     0.000000000000000     0.010946825400000
   2  41
    -1.932880384350000     0.000000000000000    -0.000000000000000
     0.000000000000000     0.821924741000000    -0.000000000000000
    -0.000000000000000    -0.000000000000000    -0.366279168410000
   2  42
     0.682635936530000    -0.482411245320000     0.000000000000000
    -0.482411245320000    -0.460674578290000    -0.000000000000000
     0.000000000000000    -0.000000000000000     0.485593079330000
   2  43
     0.367947135980000    -0.117098361860000    -0.000000000000000
    -0.117098361860000     0.232733663810000     0.000000000000000
    -0.000000000000000     0.000000000000000    -0.046377473750000
   2  44
     0.367947135980000     0.117098361860000     0.000000000000000
     0.117098361860000     0.232733663810000     0.000000000000000
     0.000000000000000     0.000000000000000    -0.046377473750000
   2  45
     0.682635936530000     0.482411245320000    -0.000000000000000
     0.482411245320000    -0.460674578290000    -0.000000000000000
    -0.000000000000000    -0.000000000000000     0.485593079330000
   2  46
   -21.806194385039998    -6.544539987459999     0.000000000000000
    -6.544539987459999   -14.249210574029998    -0.000000000000000
     0.000000000000000    -0.000000000000000    -6.118038265599999
   2  47
   -21.806194385039998     6.544539987459999    -0.000000000000000
     6.544539987459999   -14.249210574029998    -0.000000000000000
    -0.000000000000000    -0.000000000000000    -6.118038265599999
   2  48
     0.242933405010000    -0.736273699450000     0.000000000000000
    -0.736273699450000    -0.020972046770000     0.000000000000000
     0.000000000000000     0.000000000000000     0.485593079330000
   2  49
    -0.032514497660000    -0.000000000000000    -0.000000000000000
    -0.000000000000000    -0.047377629720000     0.000000000000000
    -0.000000000000000     0.000000000000000    -0.052185633020000
   2  50
     0.242933405010000     0.736273699450000    -0.000000000000000
     0.736273699450000    -0.020972046770000     0.000000000000000
    -0.000000000000000     0.000000000000000     0.485593079330000
   3   1
    -0.143178206490000     0.051765608350000     0.000000000000000
    -0.051765608350000     0.232570914760000    -0.000000000000000
    -0.000000000000000     0.000000000000000     0.013800759110000
   3   2
    -4.712479216450000     0.280125706730000     0.000000000000000
    -0.280125706730000     2.641790743710000    -0.000000000000000
    -0.000000000000000     0.000000000000000     0.460471592390000
   3   3
    62.435725412989996     0.000000000000000     0.000000000000000
     0.000000000000000    62.435725412989996     0.000000000000000
     0.000000000000000     0.000000000000000    14.289323830839999
   3   4
    -4.712479216450000    -0.280125706730000    -0.000000000000000
     0.280125706730000     2.641790743710000     0.000000000000000
     0.000000000000000    -0.000000000000000     0.460471592390000
   3   5
    -0.143178206490000    -0.051765608350000    -0.000000000000000
     0.051765608350000     0.232570914760000     0.000000000000000
     0.000000000000000    -0.000000000000000     0.013800759110000
   3   6
    -0.244502041610000     0.000000000000000    -0.000000000000000
     0.000000000000000    -0.003948856470000     0.000000000000000
    -0.000000000000000    -0.000000000000000     0.010552624380000
   3   7
    -0.411585140850000     0.191262803670000     0.000000000000000
     0.191262803670000    -0.190733839230000     0.000000000000000
     0.000000000000000     0.000000000000000    -0.070166460350000
   3   8
     0.803223253670000     2.904366697900000    -0.000000000000000
     3.464617991250000    -2.873911726410000    -0.000000000000000
    -0.000000000000000     0.000000000000000     0.460471592390000
   3   9
     0.803223253670000    -2.904366697900000    -0.000000000000000
    -3.464617991250000    -2.873911726410000     0.000000000000000
     0.000000000000000     0.000000000000000     0.460471592390000
   3  10
    -0.411585140850000    -0.191262803670000    -0.000000000000000
    -0.191262803670000    -0.190733839230000     0.000000000000000
    -0.000000000000000     0.000000000000000    -0.070166460350000
   3  11
    -0.064087092700000    -0.104162634970000     0.000000000000000
    -0.104162634970000    -0.184363685270000    -0.000000000000000
     0.000000000000000    -0.000000000000000     0.010552624380000
   3  12
    -0.064087092700000     0.104162634970000    -0.000000000000000
     0.104162634970000    -0.184363685270000     0.000000000000000
    -0.000000000000000    -0.000000000000000     0.010552624380000
   3  13
     0.138633604420000     0.110938520510000     0.000000000000000
     0.214469737210000    -0.049240896150000    -0.000000000000000
    -0.000000000000000    -0.000000000000000     0.013800759110000
   3  14
    -0.080308308530000    -0.000000000000000    -0.000000000000000
     0.000000000000000    -0.522010671550000     0.000000000000000
    -0.000000000000000     0.000000000000000    -0.070166460350000
   3  15
     0.138633604420000    -0.110938520510000     0.000000000000000
    -0.214469737210000    -0.049240896150000    -0.000000000000000
     0.000000000000000    -0.000000000000000     0.013800759110000
   3  16
     0.138633604420000    -0.214469737210000     0.000000000000000
    -0.110938520510000    -0.049240896150000    -0.000000000000000
     0.000000000000000    -0.000000000000000     0.013800759110000
   3  17
    -0.080308308530000     0.000000000000000    -0.000000000000000
    -0.000000000000000    -0.522010671550000     0.000000000000000
    -0.000000000000000     0.000000000000000    -0.070166460350000
   3  18
     0.138633604420000     0.214469737210000    -0.000000000000000
     0.110938520510000    -0.049240896150000    -0.000000000000000
     0.000000000000000    -0.000000000000000     0.013800759110000
   3  19
    -0.064087092700000     0.104162634970000    -0.000000000000000
     0.104162634970000    -0.184363685270000    -0.000000000000000
    -0.000000000000000     0.000000000000000     0.010552624380000
   3  20
    -0.064087092700000    -0.104162634970000     0.000000000000000
    -0.104162634970000    -0.184363685270000    -0.000000000000000
     0.000000000000000    -0.000000000000000     0.010552624380000
   3  21
    -0.411585140850000    -0.191262803670000    -0.000000000000000
    -0.191262803670000    -0.190733839230000     0.000000000000000
    -0.000000000000000     0.000000000000000    -0.070166460350000
   3  22
     0.803223253670000    -3.464617991250000     0.000000000000000
    -2.904366697900000    -2.873911726410000     0.000000000000000
    -0.000000000000000     0.000000000000000     0.460471592390000
   3  23
     0.803223253670000     3.464617991250000    -0.000000000000000
     2.904366697900000    -2.873911726410000     0.000000000000000
    -0.000000000000000    -0.000000000000000     0.460471592390000
   3  24
    -0.411585140850000     0.191262803670000     0.000000000000000
     0.191262803670000    -0.190733839230000     0.000000000000000
     0.000000000000000     0.000000000000000    -0.070166460350000
   3  25
    -0.244502041610000     0.000000000000000    -0.000000000000000
     0.000000000000000    -0.003948856470000    -0.000000000000000
    -0.000000000000000     0.000000000000000     0.010552624380000
   3  26
     0.246309096560000    -0.064808593470000     0.000000000000000
    -0.064808593470000    -0.120128737160000     0.000000000000000
     0.000000000000000     0.000000000000000     0.010946825400000
   3  27
     0.133223489690000    -1.192865618730000    -0.000000000000000
    -1.192865618730000    -1.244179133040000     0.000000000000000
    -0.000000000000000     0.000000000000000    -0.366279168410000
   3  28
   -10.470718608469999     0.000000000000000    -0.000000000000000
     0.000000000000000   -25.584686350599998    -0.000000000000000
    -0.000000000000000    -0.000000000000000    -6.118038265599999
   3  29
     0.133223489690000     1.192865618730000    -0.000000000000000
     1.192865618730000    -1.244179133040000     0.000000000000000
    -0.000000000000000     0.000000000000000    -0.366279168410000
   3  30
     0.246309096560000     0.064808593470000     0.000000000000000
     0.064808593470000    -0.120128737160000     0.000000000000000
     0.000000000000000     0.000000000000000     0.010946825400000
   3  31
    -0.015595682950000     0.000000000000000     0.000000000000000
     0.000000000000000    -0.015595682950000     0.000000000000000
     0.000000000000000     0.000000000000000    -0.007873210500000
   3  32
     0.027606682950000    -0.191076513060000    -0.000000000000000
    -0.191076513060000     0.098573676450000     0.000000000000000
    -0.000000000000000     0.000000000000000     0.010946825400000
   3  33
    -0.592627424290000     0.253862334020000     0.000000000000000
     0.253862334020000     0.814588782530000     0.000000000000000
     0.000000000000000     0.000000000000000     0.485593079330000
   3  34
    -0.592627424290000    -0.253862334020000    -0.000000000000000
    -0.253862334020000     0.814588782530000     0.000000000000000
    -0.000000000000000     0.000000000000000     0.485593079330000
   3  35
     0.027606682950000     0.191076513060000     0.000000000000000
     0.191076513060000     0.098573676450000     0.000000000000000
     0.000000000000000     0.000000000000000     0.010946825400000
   3  36
    -0.084645240410000     0.126267919590000    -0.000000000000000
     0.126267919590000     0.210825599810000     0.000000000000000
    -0.000000000000000     0.000000000000000     0.010946825400000
   3  37
    -0.084645240410000    -0.126267919590000     0.000000000000000
    -0.126267919590000     0.210825599810000     0.000000000000000
     0.000000000000000     0.000000000000000     0.010946825400000
   3  38
    -0.043661906760000    -0.006435974240000    -0.000000000000000
    -0.006435974240000    -0.036230340730000    -0.000000000000000
    -0.000000000000000    -0.000000000000000    -0.052185633020000
   3  39
     0.165126867670000    -0.000000000000000    -0.000000000000000
    -0.000000000000000     0.435553932120000    -0.000000000000000
    -0.000000000000000    -0.000000000000000    -0.046377473750000
   3  40
    -0.043661906760000     0.006435974240000     0.000000000000000
     0.006435974240000    -0.036230340730000    -0.000000000000000
     0.000000000000000    -0.000000000000000    -0.052185633020000
   3  41
     0.682635936530000     0.482411245320000    -0.000000000000000
     0.482411245320000    -0.460674578290000    -0.000000000000000
    -0.000000000000000    -0.000000000000000     0.485593079330000
   3  42
    -1.932880384350000     0.000000000000000    -0.000000000000000
     0.000000000000000     0.821924741000000    -0.000000000000000
    -0.000000000000000    -0.000000000000000    -0.366279168410000
   3  43
     0.682635936530000    -0.482411245320000     0.000000000000000
    -0.482411245320000    -0.460674578290000    -0.000000000000000